;
;	File 'topol.top' was generated
;	By user: mlesniewski (531800)
;	On host: login02
;	At date: Fri Jul 12 19:07:43 2024
;
;	This is a standalone topology file
;
;	Created by:
;	                    :-) GROMACS - gmx pdb2gmx, 2019.6 (-:
;	
;	Executable:   /cm/shared/apps/spack/cpu/opt/spack/linux-centos8-zen2/gcc-10.2.0/gromacs-2019.6-ymqzlo5624lcf5xcrs5wx5vy43r4m2pn/bin/gmx_mpi
;	Data prefix:  /cm/shared/apps/spack/cpu/opt/spack/linux-centos8-zen2/gcc-10.2.0/gromacs-2019.6-ymqzlo5624lcf5xcrs5wx5vy43r4m2pn
;	Working dir:  /expanse/lustre/projects/slc133/mlesniewski/check_pressure_matching/water/spce
;	Command line:
;	  gmx_mpi pdb2gmx -f solvated_box.gro
;	Force field was read from the standard GROMACS share directory.
;

; Include forcefield parameters
#include "oplsaa.ff/forcefield.itp"

; Include water topology
; #include "oplsaa.ff/spce.itp" - For BOCS Examples, we commented this include out and copied/pasted the file contents for ease of comparison
; Begin spce.itp contents

[ moleculetype ]
; molname       nrexcl
SOL             2

[ atoms ]
;   nr   type  resnr residue  atom   cgnr     charge       mass
     1  opls_116   1    SOL     OW      1      -0.8476
     2  opls_117   1    SOL    HW1      1       0.4238
     3  opls_117   1    SOL    HW2      1       0.4238

#ifndef FLEXIBLE
[ settles ]
; OW    funct   doh     dhh
1       1       0.1     0.16330

[ exclusions ]
1       2       3
2       1       3
3       1       2
#else
[ bonds ]
; i     j       funct   length  force.c.
1       2       1       0.1     345000  0.1     345000
1       3       1       0.1     345000  0.1     345000

[ angles ]
; i     j       k       funct   angle   force.c.
2       1       3       1       109.47  383     109.47  383
#endif
; end spce.itp 

#ifdef POSRES_WATER
; Position restraint for each water oxygen
[ position_restraints ]
;  i funct       fcx        fcy        fcz
   1    1       1000       1000       1000
#endif

; Include topology for ions
#include "oplsaa.ff/ions.itp"

[ system ]
; Name
Generated by gmx solvate

[ molecules ]
; Compound        #mols
SOL              5000
