Generated by gmx solvate
 1200
    1A        A    1   2.613   5.232   5.064
    2B        B    2   2.659   5.156   5.028
    3C        C    3   2.549   5.194   5.125
    4A        A    4   4.874   1.133   0.065
    5B        B    5   4.801   1.173   0.113
    6C        C    6   4.835   1.054   0.025
    7A        A    7   3.848   2.373   2.171
    8B        B    8   3.898   2.292   2.163
    9C        C    9   3.897   2.424   2.236
   10A        A   10   0.326   5.268   3.545
   11B        B   11   0.258   5.201   3.531
   12C        C   12   0.400   5.219   3.581
   13A        A   13   1.304   3.128   2.167
   14B        B   14   1.375   3.182   2.133
   15C        C   15   1.317   3.043   2.124
   16A        A   16   0.074   3.894   5.242
   17B        B   17   0.064   3.844   5.323
   18C        C   18   0.109   3.978   5.271
   19A        A   19   5.152   0.460   2.017
   20B        B   20   5.233   0.412   1.999
   21C        C   21   5.085   0.392   2.020
   22A        A   22   4.482   3.556   1.366
   23B        B   23   4.527   3.485   1.411
   24C        C   24   4.475   3.625   1.431
   25A        A   25   0.661   1.766   3.468
   26B        B   26   0.619   1.843   3.507
   27C        C   27   0.709   1.727   3.542
   28A        A   28   3.895   1.622   4.365
   29B        B   29   3.950   1.663   4.298
   30C        C   30   3.828   1.688   4.384
   31A        A   31   2.551   1.006   0.558
   32B        B   32   2.586   0.939   0.616
   33C        C   33   2.614   1.078   0.565
   34A        A   34   3.487   1.357   4.274
   35B        B   35   3.517   1.266   4.271
   36C        C   36   3.567   1.406   4.297
   37A        A   37   4.582   4.427   5.214
   38B        B   38   4.518   4.385   5.156
   39C        C   39   4.576   4.521   5.193
   40A        A   40   4.201   4.075   4.940
   41B        B   41   4.181   4.166   4.919
   42C        C   42   4.115   4.038   4.964
   43A        A   43   0.883   4.250   0.590
   44B        B   44   0.848   4.326   0.636
   45C        C   45   0.946   4.288   0.528
   46A        A   46   2.241   1.632   3.351
   47B        B   47   2.330   1.603   3.331
   48C        C   48   2.213   1.577   3.424
   49A        A   49   0.579   5.245   0.131
   50B        B   50   0.507   5.284   0.182
   51C        C   51   0.534   5.194   0.063
   52A        A   52   3.082   3.609   4.259
   53B        B   53   3.086   3.702   4.282
   54C        C   54   3.143   3.601   4.184
   55A        A   55   2.578   2.372   1.203
   56B        B   56   2.640   2.445   1.201
   57C        C   57   2.632   2.294   1.192
   58A        A   58   3.039   0.102   4.232
   59B        B   59   3.062   0.140   4.317
   60C        C   60   3.053   0.007   4.244
   61A        A   61   2.463   4.540   2.136
   62B        B   62   2.549   4.527   2.176
   63C        C   63   2.462   4.478   2.063
   64A        A   64   0.195   0.586   0.401
   65B        B   65   0.177   0.659   0.341
   66C        C   66   0.248   0.526   0.349
   67A        A   67   3.033   0.373   2.483
   68B        B   68   3.015   0.463   2.456
   69C        C   69   2.959   0.351   2.541
   70A        A   70   4.181   4.164   3.021
   71B        B   71   4.125   4.242   3.016
   72C        C   72   4.122   4.091   2.999
   73A        A   73   0.801   1.043   2.458
   74B        B   74   0.755   1.029   2.541
   75C        C   75   0.738   1.014   2.391
   76A        A   76   3.295   1.458   0.338
   77B        B   77   3.238   1.505   0.277
   78C        C   78   3.340   1.393   0.283
   79A        A   79   2.183   0.143   3.949
   80B        B   80   2.247   0.075   3.932
   81C        C   81   2.210   0.180   4.034
   82A        A   82   2.524   3.150   2.692
   83B        B   83   2.603   3.122   2.646
   84C        C   84   2.552   3.227   2.743
   85A        A   85   0.530   3.501   1.366
   86B        B   86   0.547   3.412   1.399
   87C        C   87   0.450   3.491   1.312
   88A        A   88   2.938   0.382   4.628
   89B        B   89   3.015   0.360   4.680
   90C        C   90   2.918   0.300   4.580
   91A        A   91   1.270   1.403   1.289
   92B        B   92   1.306   1.318   1.263
   93C        C   93   1.174   1.392   1.279
   94A        A   94   2.950   3.050   3.901
   95B        B   95   2.867   3.091   3.875
   96C        C   96   2.925   2.958   3.919
   97A        A   97   4.640   4.209   4.038
   98B        B   98   4.551   4.228   4.066
   99C        C   99   4.665   4.286   3.985
  100A        A  100   5.301   1.380   2.036
  101B        B  101   5.297   1.461   2.087
  102C        C  102   5.308   1.310   2.102
  103A        A  103   1.813   2.492   2.488
  104B        B  104   1.832   2.469   2.579
  105C        C  105   1.846   2.418   2.437
  106A        A  106   3.194   2.311   0.035
  107B        B  107   3.178   2.234   0.089
  108C        C  108   3.122   2.370   0.055
  109A        A  109   2.499   4.176   2.529
  110B        B  110   2.566   4.154   2.464
  111C        C  111   2.547   4.228   2.594
  112A        A  112   1.567   3.837   3.269
  113B        B  113   1.644   3.869   3.223
  114C        C  114   1.598   3.820   3.358
  115A        A  115   2.829   3.640   2.068
  116B        B  116   2.903   3.609   2.016
  117C        C  117   2.869   3.693   2.137
  118A        A  118   4.801   1.907   0.337
  119B        B  119   4.895   1.904   0.318
  120C        C  120   4.795   1.947   0.424
  121A        A  121   1.343   4.893   2.693
  122B        B  122   1.347   4.856   2.605
  123C        C  123   1.424   4.944   2.702
  124A        A  124   3.367   3.000   1.200
  125B        B  125   3.422   2.942   1.253
  126C        C  126   3.336   2.943   1.128
  127A        A  127   4.365   4.278   0.127
  128B        B  128   4.355   4.185   0.146
  129C        C  129   4.274   4.311   0.124
  130A        A  130   5.231   3.398   0.726
  131B        B  131   5.262   3.447   0.650
  132C        C  132   5.162   3.454   0.764
  133A        A  133   4.253   1.123   1.851
  134B        B  134   4.318   1.186   1.882
  135C        C  135   4.169   1.159   1.881
  136A        A  136   3.356   0.603   2.345
  137B        B  137   3.325   0.656   2.271
  138C        C  138   3.276   0.569   2.385
  139A        A  139   2.103   0.572   1.322
  140B        B  140   2.027   0.520   1.349
  141C        C  141   2.064   0.653   1.286
  142A        A  142   2.560   3.164   0.024
  143B        B  143   2.490   3.209   0.071
  144C        C  144   2.626   3.233   0.009
  145A        A  145   2.535   4.736   3.521
  146B        B  146   2.460   4.721   3.463
  147C        C  147   2.499   4.726   3.609
  148A        A  148   0.420   4.629   0.723
  149B        B  149   0.325   4.629   0.738
  150C        C  150   0.447   4.717   0.751
  151A        A  151   2.593   3.427   1.838
  152B        B  152   2.539   3.502   1.863
  153C        C  153   2.659   3.463   1.778
  154A        A  154   4.105   1.639   3.425
  155B        B  155   4.044   1.574   3.461
  156C        C  156   4.116   1.613   3.333
  157A        A  157   1.759   3.543   2.626
  158B        B  158   1.705   3.524   2.702
  159C        C  159   1.789   3.457   2.595
  160A        A  160   0.179   3.575   0.436
  161B        B  161   0.141   3.659   0.463
  162C        C  162   0.125   3.509   0.481
  163A        A  163   4.942   1.108   1.089
  164B        B  164   5.022   1.057   1.101
  165C        C  165   4.957   1.159   1.009
  166A        A  166   0.691   1.410   1.903
  167B        B  167   0.636   1.448   1.835
  168C        C  168   0.725   1.329   1.864
  169A        A  169   4.440   3.398   3.206
  170B        B  170   4.476   3.313   3.181
  171C        C  171   4.406   3.383   3.295
  172A        A  172   0.135   2.094   2.963
  173B        B  173   0.145   2.189   2.967
  174C        C  174   0.183   2.069   2.883
  175A        A  175   2.265   3.209   3.160
  176B        B  176   2.315   3.240   3.235
  177C        C  177   2.327   3.155   3.110
  178A        A  178   4.488   4.799   2.448
  179B        B  179   4.478   4.879   2.395
  180C        C  180   4.528   4.736   2.387
  181A        A  181   4.000   0.721   1.660
  182B        B  182   3.932   0.685   1.603
  183C        C  183   3.968   0.704   1.749
  184A        A  184   3.951   1.976   3.286
  185B        B  185   3.992   1.897   3.250
  186C        C  186   3.970   1.971   3.380
  187A        A  187   2.354   1.030   4.167
  188B        B  188   2.346   1.053   4.074
  189C        C  189   2.282   0.968   4.182
  190A        A  190   2.016   4.520   2.751
  191B        B  191   2.087   4.511   2.687
  192C        C  192   2.054   4.575   2.820
  193A        A  193   4.442   2.290   5.179
  194B        B  194   4.379   2.265   5.111
  195C        C  195   4.388   2.332   5.247
  196A        A  196   4.688   3.172   1.356
  197B        B  197   4.628   3.221   1.413
  198C        C  198   4.688   3.083   1.393
  199A        A  199   1.619   1.310   4.268
  200B        B  200   1.551   1.269   4.321
  201C        C  201   1.587   1.400   4.255
  202A        A  202   2.734   4.741   4.621
  203B        B  203   2.768   4.652   4.623
  204C        C  204   2.812   4.796   4.608
  205A        A  205   0.090   4.441   4.363
  206B        B  206   0.134   4.503   4.304
  207C        C  207   0.144   4.362   4.359
  208A        A  208   0.517   2.275   2.394
  209B        B  209   0.572   2.282   2.472
  210C        C  210   0.518   2.182   2.372
  211A        A  211   4.008   4.376   4.401
  212B        B  212   4.087   4.409   4.444
  213C        C  213   4.041   4.315   4.334
  214A        A  214   2.806   5.167   3.734
  215B        B  215   2.804   5.145   3.641
  216C        C  216   2.787   5.084   3.778
  217A        A  217   4.077   0.598   2.405
  218B        B  218   4.069   0.621   2.312
  219C        C  219   4.157   0.545   2.410
  220A        A  220   4.126   3.787   3.661
  221B        B  221   4.151   3.706   3.617
  222C        C  222   4.172   3.783   3.746
  223A        A  223   4.658   4.903   4.538
  224B        B  224   4.626   4.934   4.453
  225C        C  225   4.616   4.962   4.601
  226A        A  226   0.937   3.524   2.365
  227B        B  227   0.989   3.444   2.373
  228C        C  228   0.851   3.492   2.335
  229A        A  229   1.091   3.006   4.337
  230B        B  230   1.088   3.026   4.243
  231C        C  231   1.164   3.060   4.370
  232A        A  232   4.396   1.415   1.715
  233B        B  233   4.471   1.379   1.668
  234C        C  234   4.328   1.348   1.708
  235A        A  235   3.424   3.515   3.320
  236B        B  236   3.368   3.456   3.373
  237C        C  237   3.385   3.510   3.232
  238A        A  238   1.364   3.323   3.250
  239B        B  239   1.392   3.414   3.240
  240C        C  240   1.298   3.311   3.181
  241A        A  241   1.565   2.989   0.890
  242B        B  242   1.614   2.973   0.809
  243C        C  243   1.477   3.014   0.860
  244A        A  244   0.948   3.121   1.828
  245B        B  245   0.979   3.091   1.742
  246C        C  246   1.029   3.136   1.878
  247A        A  247   3.892   4.836   0.125
  248B        B  248   3.939   4.754   0.106
  249C        C  249   3.854   4.862   0.041
  250A        A  250   3.931   3.315   3.006
  251B        B  251   3.984   3.300   3.085
  252C        C  252   3.848   3.269   3.025
  253A        A  253   1.460   4.922   1.352
  254B        B  254   1.516   4.900   1.276
  255C        C  255   1.519   4.970   1.411
  256A        A  256   1.848   1.177   1.717
  257B        B  257   1.933   1.205   1.751
  258C        C  258   1.871   1.112   1.649
  259A        A  259   0.494   4.985   1.559
  260B        B  260   0.423   4.926   1.531
  261C        C  261   0.459   5.026   1.639
  262A        A  262   4.413   3.102   4.072
  263B        B  263   4.491   3.150   4.101
  264C        C  264   4.359   3.094   4.151
  265A        A  265   2.330   3.076   1.713
  266B        B  266   2.298   3.028   1.790
  267C        C  267   2.252   3.086   1.658
  268A        A  268   1.845   3.945   1.384
  269B        B  269   1.898   4.002   1.329
  270C        C  270   1.880   3.857   1.368
  271A        A  271   3.591   4.679   4.001
  272B        B  272   3.635   4.600   3.968
  273C        C  273   3.653   4.716   4.065
  274A        A  274   1.873   1.647   3.203
  275B        B  275   1.962   1.684   3.195
  276C        C  276   1.881   1.559   3.167
  277A        A  277   5.315   4.616   1.859
  278B        B  278   5.325   4.554   1.931
  279C        C  279   5.252   4.573   1.800
  280A        A  280   4.298   2.394   2.051
  281B        B  281   4.292   2.489   2.054
  282C        C  282   4.278   2.366   2.141
  283A        A  283   0.754   3.257   2.508
  284B        B  284   0.689   3.201   2.548
  285C        C  285   0.707   3.339   2.489
  286A        A  286   4.612   4.274   0.755
  287B        B  287   4.603   4.345   0.691
  288C        C  288   4.559   4.202   0.719
  289A        A  289   0.417   3.959   3.091
  290B        B  290   0.362   3.936   3.017
  291C        C  291   0.387   4.047   3.116
  292A        A  292   5.219   5.048   3.865
  293B        B  293   5.274   4.980   3.826
  294C        C  294   5.238   5.126   3.812
  295A        A  295   4.947   0.313   3.048
  296B        B  296   5.018   0.368   3.083
  297C        C  297   4.895   0.291   3.125
  298A        A  298   3.500   4.810   1.650
  299B        B  299   3.513   4.754   1.574
  300C        C  300   3.473   4.750   1.720
  301A        A  301   0.653   0.924   4.251
  302B        B  302   0.686   0.902   4.164
  303C        C  303   0.695   1.007   4.272
  304A        A  304   4.307   4.829   1.292
  305B        B  305   4.390   4.783   1.276
  306C        C  306   4.325   4.884   1.368
  307A        A  307   0.842   1.986   5.015
  308B        B  308   0.779   1.938   5.069
  309C        C  309   0.788   2.053   4.971
  310A        A  310   1.070   3.999   5.219
  311B        B  311   1.076   3.977   5.126
  312C        C  312   0.986   3.963   5.247
  313A        A  313   4.906   0.908   3.112
  314B        B  314   4.945   0.932   3.028
  315C        C  315   4.953   0.962   3.176
  316A        A  316   2.133   0.499   2.559
  317B        B  317   2.161   0.419   2.513
  318C        C  318   2.203   0.514   2.623
  319A        A  319   3.275   4.818   3.347
  320B        B  320   3.244   4.883   3.285
  321C        C  321   3.296   4.741   3.292
  322A        A  322   5.186   1.230   4.664
  323B        B  323   5.258   1.227   4.727
  324C        C  324   5.165   1.137   4.649
  325A        A  325   4.664   0.770   4.916
  326B        B  326   4.607   0.812   4.851
  327C        C  327   4.611   0.767   4.996
  328A        A  328   1.613   5.130   2.045
  329B        B  329   1.540   5.122   1.983
  330C        C  330   1.653   5.042   2.045
  331A        A  331   3.198   1.313   1.460
  332B        B  332   3.278   1.332   1.509
  333C        C  333   3.224   1.244   1.398
  334A        A  334   4.478   5.267   2.836
  335B        B  335   4.574   5.268   2.832
  336C        C  336   4.454   5.359   2.848
  337A        A  337   0.922   2.654   4.126
  338B        B  338   0.867   2.583   4.158
  339C        C  339   0.860   2.714   4.083
  340A        A  340   4.805   1.506   2.255
  341B        B  341   4.753   1.586   2.262
  342C        C  342   4.754   1.450   2.196
  343A        A  343   2.629   2.741   0.156
  344B        B  344   2.626   2.767   0.248
  345C        C  345   2.592   2.652   0.155
  346A        A  346   4.087   1.702   1.944
  347B        B  347   4.096   1.688   2.038
  348C        C  348   4.143   1.635   1.904
  349A        A  349   1.336   4.040   3.378
  350B        B  350   1.416   4.088   3.398
  351C        C  351   1.296   4.023   3.464
  352A        A  352   4.983   1.415   3.183
  353B        B  353   4.919   1.475   3.144
  354C        C  354   5.031   1.470   3.246
  355A        A  355   0.521   1.880   4.934
  356B        B  356   0.447   1.840   4.888
  357C        C  357   0.487   1.899   5.022
  358A        A  358   1.909   3.581   3.640
  359B        B  359   1.898   3.505   3.698
  360C        C  360   1.907   3.543   3.551
  361A        A  361   2.173   1.143   4.362
  362B        B  362   2.087   1.125   4.323
  363C        C  363   2.185   1.073   4.426
  364A        A  364   3.207   2.084   3.176
  365B        B  365   3.192   2.177   3.158
  366C        C  366   3.283   2.083   3.234
  367A        A  367   5.113   3.360   1.276
  368B        B  368   5.131   3.287   1.217
  369C        C  369   5.190   3.365   1.334
  370A        A  370   4.271   1.335   3.310
  371B        B  371   4.238   1.281   3.383
  372C        C  372   4.318   1.272   3.254
  373A        A  373   0.546   5.234   4.640
  374B        B  374   0.480   5.288   4.597
  375C        C  375   0.501   5.199   4.718
  376A        A  376   1.997   0.301   3.694
  377B        B  377   1.971   0.251   3.771
  378C        C  378   2.008   0.235   3.625
  379A        A  379   1.473   2.570   3.335
  380B        B  380   1.541   2.502   3.339
  381C        C  381   1.522   2.652   3.329
  382A        A  382   3.661   2.898   0.904
  383B        B  383   3.674   2.993   0.897
  384C        C  384   3.746   2.861   0.880
  385A        A  385   3.227   5.142   4.762
  386B        B  386   3.141   5.179   4.738
  387C        C  387   3.225   5.138   4.858
  388A        A  388   0.044   1.004   4.311
  389B        B  389   0.066   0.916   4.281
  390C        C  390  -0.048   0.997   4.341
  391A        A  391   0.284   1.239   4.087
  392B        B  392   0.226   1.197   4.022
  393C        C  393   0.318   1.165   4.138
  394A        A  394   3.419   4.041   0.349
  395B        B  395   3.388   4.036   0.258
  396C        C  396   3.452   4.131   0.357
  397A        A  397   1.498   2.883   0.087
  398B        B  398   1.552   2.813   0.123
  399C        C  399   1.560   2.935   0.034
  400A        A  400   4.678   2.350   4.410
  401B        B  401   4.747   2.364   4.344
  402C        C  402   4.702   2.409   4.482
  403A        A  403   2.827   4.396   1.043
  404B        B  404   2.894   4.376   1.107
  405C        C  405   2.848   4.340   0.967
  406A        A  406   0.472   0.505   4.719
  407B        B  407   0.464   0.592   4.679
  408C        C  408   0.396   0.500   4.779
  409A        A  409   2.479   0.846   4.819
  410B        B  410   2.466   0.886   4.905
  411C        C  411   2.436   0.760   4.826
  412A        A  412   4.173   0.518   1.380
  413B        B  413   4.254   0.530   1.330
  414C        C  414   4.115   0.470   1.320
  415A        A  415   3.174   3.539   0.326
  416B        B  416   3.146   3.448   0.330
  417C        C  417   3.257   3.540   0.375
  418A        A  418   2.784   1.578   0.224
  419B        B  419   2.690   1.593   0.224
  420C        C  420   2.821   1.662   0.255
  421A        A  421   0.303   2.066   5.332
  422B        B  422   0.234   2.052   5.266
  423C        C  423   0.335   2.154   5.312
  424A        A  424   3.015   2.861   3.418
  425B        B  425   2.923   2.855   3.443
  426C        C  426   3.042   2.947   3.451
  427A        A  427   1.147   1.428   3.659
  428B        B  428   1.056   1.443   3.631
  429C        C  429   1.197   1.498   3.615
  430A        A  430   3.160   1.877   0.223
  431B        B  431   3.179   1.796   0.177
  432C        C  432   3.246   1.919   0.235
  433A        A  433   1.170   0.902   4.534
  434B        B  434   1.132   0.986   4.507
  435C        C  435   1.193   0.859   4.452
  436A        A  436   2.556   3.192   4.590
  437B        B  437   2.508   3.123   4.635
  438C        C  438   2.619   3.224   4.656
  439A        A  439   4.964   1.650   0.193
  440B        B  440   4.921   1.565   0.181
  441C        C  441   4.990   1.676   0.104
  442A        A  442   1.468   0.271   3.158
  443B        B  443   1.401   0.205   3.177
  444C        C  444   1.549   0.219   3.147
  445A        A  445   0.265   5.166   0.952
  446B        B  446   0.198   5.190   1.016
  447C        C  447   0.278   5.246   0.900
  448A        A  448   3.595   0.871   1.360
  449B        B  449   3.567   0.829   1.278
  450C        C  450   3.656   0.808   1.399
  451A        A  451   0.328   2.632   4.477
  452B        B  452   0.244   2.612   4.434
  453C        C  453   0.333   2.728   4.476
  454A        A  454   2.113   3.316   2.267
  455B        B  455   2.162   3.397   2.267
  456C        C  456   2.119   3.284   2.357
  457A        A  457   1.617  -0.014   2.268
  458B        B  458   1.659   0.027   2.193
  459C        C  459   1.594   0.060   2.325
  460A        A  460   0.539   3.115   4.993
  461B        B  461   0.448   3.128   5.019
  462C        C  462   0.544   3.153   4.905
  463A        A  463   3.664   0.671   1.944
  464B        B  464   3.689   0.762   1.928
  465C        C  465   3.684   0.627   1.861
  466A        A  466   2.946   3.650   5.167
  467B        B  467   2.891   3.717   5.207
  468C        C  468   2.999   3.699   5.103
  469A        A  469   5.202   4.182   3.568
  470B        B  470   5.182   4.145   3.482
  471C        C  471   5.274   4.243   3.551
  472A        A  472   3.185   1.847   1.601
  473B        B  473   3.126   1.921   1.587
  474C        C  474   3.138   1.791   1.664
  475A        A  475   2.444   0.909   1.901
  476B        B  476   2.428   0.838   1.838
  477C        C  477   2.523   0.881   1.948
  478A        A  478   3.182   2.066   3.620
  479B        B  479   3.121   2.062   3.694
  480C        C  480   3.223   2.153   3.628
  481A        A  481   4.920   2.560   4.137
  482B        B  482   4.999   2.612   4.146
  483C        C  483   4.856   2.603   4.194
  484A        A  484   2.721   1.277   3.990
  485B        B  485   2.661   1.246   3.922
  486C        C  486   2.789   1.209   3.994
  487A        A  487   3.612   3.439   0.219
  488B        B  488   3.542   3.387   0.180
  489C        C  489   3.613   3.412   0.311
  490A        A  490   0.789   4.870   4.176
  491B        B  491   0.778   4.779   4.204
  492C        C  492   0.740   4.875   4.093
  493A        A  493   4.979   3.024   2.586
  494B        B  494   4.890   3.049   2.561
  495C        C  495   5.033   3.045   2.509
  496A        A  496   4.818   5.163   0.463
  497B        B  497   4.845   5.154   0.371
  498C        C  498   4.833   5.255   0.484
  499A        A  499   5.052   1.285   3.944
  500B        B  500   4.984   1.264   4.008
  501C        C  501   5.057   1.381   3.946
  502A        A  502   4.100   4.196   0.421
  503B        B  503   4.176   4.212   0.365
  504C        C  504   4.103   4.267   0.486
  505A        A  505   3.743   4.214   4.501
  506B        B  506   3.780   4.185   4.417
  507C        C  507   3.718   4.132   4.545
  508A        A  508   0.550   4.182   1.767
  509B        B  509   0.605   4.112   1.804
  510C        C  510   0.566   4.177   1.672
  511A        A  511   1.488   1.856   5.003
  512B        B  512   1.581   1.837   5.016
  513C        C  513   1.460   1.894   5.087
  514A        A  514   3.563   2.646   2.803
  515B        B  515   3.571   2.692   2.887
  516C        C  516   3.468   2.635   2.791
  517A        A  517   4.484   1.674   0.490
  518B        B  518   4.400   1.628   0.503
  519C        C  519   4.547   1.621   0.539
  520A        A  520   5.259   5.188   0.111
  521B        B  521   5.321   5.142   0.054
  522C        C  522   5.270   5.146   0.197
  523A        A  523   1.435   3.332   4.853
  524B        B  524   1.356   3.296   4.812
  525C        C  525   1.487   3.364   4.779
  526A        A  526   4.071   1.075   3.379
  527B        B  527   4.037   0.985   3.387
  528C        C  528   3.994   1.126   3.351
  529A        A  529   2.321   0.344   5.190
  530B        B  530   2.267   0.276   5.231
  531C        C  531   2.259   0.393   5.135
  532A        A  532   4.429   3.394   5.200
  533B        B  533   4.442   3.462   5.266
  534C        C  534   4.513   3.390   5.152
  535A        A  535   1.808   2.095   4.148
  536B        B  536   1.798   2.105   4.054
  537C        C  537   1.873   2.025   4.159
  538A        A  538   0.098   3.496   2.076
  539B        B  539   0.050   3.419   2.046
  540C        C  540   0.069   3.566   2.017
  541A        A  541   1.968   0.715   2.763
  542B        B  542   1.880   0.677   2.771
  543C        C  543   1.952   0.803   2.727
  544A        A  544   0.018   2.412   5.159
  545B        B  545   0.089   2.369   5.206
  546C        C  546  -0.011   2.347   5.095
  547A        A  547   3.693   4.424   3.052
  548B        B  548   3.762   4.471   3.100
  549C        C  549   3.724   4.425   2.960
  550A        A  550   1.767   4.314   1.804
  551B        B  551   1.803   4.225   1.798
  552C        C  552   1.712   4.322   1.725
  553A        A  553   1.920   2.773   2.228
  554B        B  554   1.999   2.823   2.209
  555C        C  555   1.884   2.814   2.307
  556A        A  556   1.685   0.359   0.725
  557B        B  557   1.642   0.369   0.640
  558C        C  558   1.633   0.415   0.784
  559A        A  559   1.086   1.823   1.488
  560B        B  560   1.120   1.751   1.435
  561C        C  561   1.159   1.848   1.545
  562A        A  562   1.629   0.991   4.133
  563B        B  563   1.671   1.077   4.135
  564C        C  564   1.561   0.996   4.201
  565A        A  565   2.871   1.819   4.208
  566B        B  566   2.838   1.895   4.257
  567C        C  567   2.966   1.818   4.227
  568A        A  568   2.151   3.966   0.607
  569B        B  569   2.075   3.946   0.661
  570C        C  570   2.177   3.881   0.571
  571A        A  571   4.015   0.578   0.416
  572B        B  572   3.952   0.646   0.394
  573C        C  573   4.092   0.598   0.362
  574A        A  574   3.148   1.163   3.251
  575B        B  575   3.149   1.229   3.182
  576C        C  576   3.088   1.198   3.317
  577A        A  577   5.129   1.461   2.345
  578B        B  578   5.198   1.483   2.409
  579C        C  579   5.178   1.437   2.265
  580A        A  580   4.902   1.057   4.350
  581B        B  581   4.854   0.982   4.314
  582C        C  582   4.951   1.091   4.274
  583A        A  583   3.962   4.515   1.009
  584B        B  584   3.892   4.552   1.064
  585C        C  585   3.978   4.584   0.944
  586A        A  586   3.296   3.922   1.365
  587B        B  587   3.388   3.929   1.394
  588C        C  588   3.299   3.856   1.295
  589A        A  589   3.700   0.971   0.093
  590B        B  590   3.642   1.025   0.039
  591C        C  591   3.723   0.896   0.036
  592A        A  592   3.302   3.116   0.190
  593B        B  593   3.372   3.113   0.255
  594C        C  594   3.321   3.041   0.132
  595A        A  595   4.735   1.548   0.888
  596B        B  596   4.656   1.547   0.943
  597C        C  597   4.749   1.455   0.866
  598A        A  598   3.267   1.499   1.912
  599B        B  599   3.221   1.582   1.904
  600C        C  600   3.343   1.509   1.854
  601A        A  601   3.480   1.903   2.205
  602B        B  602   3.454   1.992   2.231
  603C        C  603   3.400   1.868   2.164
  604A        A  604   5.326   2.171   2.112
  605B        B  605   5.320   2.093   2.167
  606C        C  606   5.257   2.229   2.146
  607A        A  607   0.550   2.465   4.217
  608B        B  608   0.457   2.470   4.240
  609C        C  609   0.551   2.459   4.121
  610A        A  610   4.744   3.032   4.706
  611B        B  611   4.752   2.981   4.625
  612C        C  612   4.816   3.095   4.701
  613A        A  613   0.035   1.486   1.239
  614B        B  614   0.105   1.456   1.297
  615C        C  615  -0.007   1.404   1.209
  616A        A  616   0.002   4.004   0.474
  617B        B  617   0.034   3.914   0.471
  618C        C  618  -0.021   4.018   0.567
  619A        A  619   0.696   3.622   3.607
  620B        B  620   0.655   3.652   3.689
  621C        C  621   0.744   3.699   3.575
  622A        A  622   4.499   3.066   0.565
  623B        B  623   4.455   2.981   0.577
  624C        C  624   4.460   3.122   0.632
  625A        A  625   0.176   2.457   0.810
  626B        B  626   0.251   2.408   0.775
  627C        C  627   0.130   2.490   0.732
  628A        A  628   1.587   1.967   1.850
  629B        B  629   1.551   1.964   1.939
  630C        C  630   1.633   2.052   1.846
  631A        A  631   1.157   4.486   4.878
  632B        B  632   1.229   4.549   4.875
  633C        C  633   1.157   4.445   4.791
  634A        A  634   0.156   1.730   1.961
  635B        B  635   0.064   1.712   1.941
  636C        C  636   0.169   1.820   1.930
  637A        A  637   1.793   2.231   1.693
  638B        B  638   1.777   2.247   1.600
  639C        C  639   1.800   2.135   1.699
  640A        A  640   2.187   2.703   4.640
  641B        B  641   2.165   2.649   4.715
  642C        C  642   2.130   2.670   4.570
  643A        A  643   2.965   0.379   0.728
  644B        B  644   2.883   0.349   0.689
  645C        C  645   3.023   0.302   0.724
  646A        A  646   3.635   5.146   1.883
  647B        B  647   3.692   5.093   1.827
  648C        C  648   3.680   5.148   1.967
  649A        A  649   4.319   0.211   4.470
  650B        B  650   4.240   0.167   4.502
  651C        C  651   4.287   0.266   4.398
  652A        A  652   4.521   4.716   4.686
  653B        B  653   4.583   4.674   4.746
  654C        C  654   4.479   4.643   4.640
  655A        A  655   3.444   4.137   3.884
  656B        B  656   3.509   4.067   3.890
  657C        C  657   3.478   4.194   3.814
  658A        A  658   3.217   3.767   4.712
  659B        B  659   3.282   3.697   4.701
  660C        C  660   3.225   3.820   4.632
  661A        A  661   3.752   4.081   3.499
  662B        B  662   3.784   4.166   3.530
  663C        C  663   3.832   4.033   3.475
  664A        A  664   3.624   3.935   2.707
  665B        B  665   3.658   4.016   2.745
  666C        C  666   3.694   3.906   2.647
  667A        A  667   1.147   2.486   3.390
  668B        B  668   1.156   2.424   3.463
  669C        C  669   1.228   2.475   3.339
  670A        A  670   1.034   5.202   4.428
  671B        B  671   1.013   5.143   4.356
  672C        C  672   1.113   5.163   4.468
  673A        A  673   5.272   5.213   0.535
  674B        B  674   5.289   5.289   0.479
  675C        C  675   5.186   5.182   0.506
  676A        A  676   1.434   2.889   4.013
  677B        B  677   1.520   2.851   3.994
  678C        C  678   1.393   2.900   3.926
  679A        A  679   0.276   0.128   1.395
  680B        B  680   0.215   0.190   1.434
  681C        C  681   0.316   0.177   1.322
  682A        A  682   2.505   3.088   3.184
  683B        B  683   2.537   3.008   3.142
  684C        C  684   2.540   3.159   3.131
  685A        A  685   0.969   2.943   2.601
  686B        B  686   0.990   2.969   2.511
  687C        C  687   0.880   2.907   2.595
  688A        A  688   4.556   1.725   3.720
  689B        B  689   4.582   1.747   3.630
  690C        C  690   4.637   1.692   3.761
  691A        A  691   2.861   1.703   3.469
  692B        B  692   2.885   1.796   3.473
  693C        C  693   2.946   1.658   3.475
  694A        A  694   1.474   3.908   0.293
  695B        B  695   1.403   3.877   0.349
  696C        C  696   1.540   3.941   0.355
  697A        A  697   4.489   5.232   0.610
  698B        B  698   4.566   5.252   0.557
  699C        C  699   4.507   5.272   0.695
  700A        A  700   5.252   2.974   1.439
  701B        B  701   5.159   2.997   1.446
  702C        C  702   5.295   3.028   1.507
  703A        A  703   4.340   4.576   0.707
  704B        B  704   4.280   4.635   0.661
  705C        C  705   4.411   4.562   0.644
  706A        A  706   5.309   2.616   4.396
  707B        B  707   5.250   2.543   4.417
  708C        C  708   5.301   2.625   4.300
  709A        A  709   4.984   2.480   4.676
  710B        B  710   4.958   2.563   4.636
  711C        C  711   4.978   2.496   4.771
  712A        A  712   4.164   0.101   2.897
  713B        B  713   4.075   0.068   2.895
  714C        C  714   4.207   0.060   2.821
  715A        A  715   1.551   3.164   4.050
  716B        B  716   1.595   3.174   4.135
  717C        C  717   1.542   3.254   4.018
  718A        A  718   1.203   4.730   0.871
  719B        B  719   1.269   4.780   0.920
  720C        C  720   1.239   4.723   0.782
  721A        A  721   0.418   4.559   0.468
  722B        B  722   0.458   4.478   0.499
  723C        C  723   0.492   4.618   0.451
  724A        A  724   0.326   2.413   2.772
  725B        B  725   0.294   2.503   2.759
  726C        C  726   0.401   2.406   2.713
  727A        A  727   1.077   5.007   3.223
  728B        B  728   1.024   4.930   3.242
  729C        C  729   1.133   4.979   3.150
  730A        A  730   1.243   4.957   2.448
  731B        B  731   1.333   4.965   2.417
  732C        C  732   1.229   5.037   2.500
  733A        A  733   3.358   2.620   3.602
  734B        B  734   3.387   2.693   3.657
  735C        C  735   3.383   2.541   3.652
  736A        A  736   0.621   0.080   0.514
  737B        B  737   0.565   0.087   0.436
  738C        C  738   0.582   0.008   0.565
  739A        A  739   1.399   1.538   0.947
  740B        B  740   1.349   1.537   1.028
  741C        C  741   1.484   1.576   0.972
  742A        A  742   1.255   3.382   1.603
  743B        B  743   1.161   3.373   1.622
  744C        C  744   1.258   3.441   1.527
  745A        A  745   0.900   4.979   2.991
  746B        B  746   0.931   5.058   2.945
  747C        C  747   0.836   5.013   3.055
  748A        A  748   5.052   0.057   0.220
  749B        B  749   4.958   0.055   0.237
  750C        C  750   5.066   0.142   0.175
  751A        A  751   0.990   5.194   2.441
  752B        B  752   1.085   5.196   2.430
  753C        C  753   0.963   5.286   2.432
  754A        A  754   1.985   4.314   2.943
  755B        B  755   1.934   4.300   2.863
  756C        C  756   2.037   4.233   2.951
  757A        A  757   4.690   1.027   3.393
  758B        B  758   4.767   1.018   3.338
  759C        C  759   4.626   1.072   3.337
  760A        A  760   5.037   3.113   2.253
  761B        B  761   5.084   3.163   2.320
  762C        C  762   5.088   3.128   2.172
  763A        A  763   1.739   1.830   0.012
  764B        B  764   1.644   1.820   0.015
  765C        C  765   1.772   1.742   0.028
  766A        A  766   5.144   5.168   2.304
  767B        B  767   5.223   5.192   2.256
  768C        C  768   5.127   5.245   2.359
  769A        A  769   1.826   5.016   5.029
  770B        B  770   1.757   4.955   5.004
  771C        C  771   1.878   4.968   5.094
  772A        A  772   1.846   2.563   3.409
  773B        B  773   1.885   2.645   3.378
  774C        C  774   1.911   2.527   3.469
  775A        A  775   0.542   1.872   3.836
  776B        B  776   0.627   1.849   3.799
  777C        C  777   0.479   1.819   3.786
  778A        A  778   5.283   3.755   0.208
  779B        B  779   5.278   3.707   0.125
  780C        C  780   5.360   3.717   0.252
  781A        A  781   1.461   4.232   4.017
  782B        B  782   1.421   4.291   3.953
  783C        C  783   1.539   4.198   3.972
  784A        A  784   3.063   0.620   2.873
  785B        B  785   3.081   0.672   2.794
  786C        C  786   3.076   0.682   2.945
  787A        A  787   3.975   5.116   0.168
  788B        B  788   3.906   5.163   0.214
  789C        C  789   3.989   5.167   0.088
  790A        A  790   1.839   0.240   0.371
  791B        B  791   1.770   0.300   0.341
  792C        C  792   1.831   0.164   0.314
  793A        A  793   0.880   0.343   3.820
  794B        B  794   0.921   0.422   3.856
  795C        C  795   0.832   0.375   3.743
  796A        A  796   2.374   4.882   0.736
  797B        B  797   2.365   4.877   0.831
  798C        C  798   2.386   4.790   0.709
  799A        A  799   4.742   3.528   3.385
  800B        B  800   4.810   3.550   3.450
  801C        C  801   4.778   3.559   3.302
  802A        A  802   4.884   4.049   5.254
  803B        B  803   4.974   4.017   5.260
  804C        C  804   4.859   4.030   5.163
  805A        A  805   0.138   2.064   0.302
  806B        B  806   0.218   2.047   0.352
  807C        C  807   0.155   2.024   0.216
  808A        A  808   0.530   1.882   3.142
  809B        B  809   0.553   1.799   3.098
  810C        C  810   0.569   1.874   3.230
  811A        A  811   3.957   4.330   1.125
  812B        B  812   4.051   4.343   1.142
  813C        C  813   3.935   4.253   1.178
  814A        A  814   1.527   0.363   1.719
  815B        B  815   1.530   0.449   1.677
  816C        C  816   1.451   0.369   1.779
  817A        A  817   4.243   0.202   0.912
  818B        B  818   4.200   0.253   0.843
  819C        C  819   4.186   0.212   0.988
  820A        A  820   3.117   0.397   1.080
  821B        B  821   3.171   0.475   1.070
  822C        C  822   3.112   0.383   1.175
  823A        A  823   3.092   4.088   2.060
  824B        B  824   3.010   4.066   2.104
  825C        C  825   3.064   4.143   1.986
  826A        A  826   2.810   1.498   2.918
  827B        B  827   2.808   1.575   2.861
  828C        C  828   2.718   1.485   2.945
  829A        A  829   1.801   0.516   4.599
  830B        B  830   1.850   0.435   4.587
  831C        C  831   1.790   0.524   4.694
  832A        A  832   2.770   2.211   0.183
  833B        B  833   2.734   2.293   0.148
  834C        C  834   2.709   2.187   0.254
  835A        A  835   1.430   0.130   4.014
  836B        B  836   1.488   0.173   4.077
  837C        C  837   1.343   0.165   4.034
  838A        A  838   3.575   3.014   1.983
  839B        B  839   3.482   3.037   1.978
  840C        C  840   3.577   2.934   2.036
  841A        A  841   4.013   2.744   4.419
  842B        B  842   4.073   2.694   4.475
  843C        C  843   3.999   2.688   4.342
  844A        A  844   0.923   3.906   1.028
  845B        B  845   0.991   3.854   0.985
  846C        C  846   0.972   3.965   1.087
  847A        A  847   0.117   2.761   0.350
  848B        B  848   0.041   2.735   0.401
  849C        C  849   0.095   2.737   0.259
  850A        A  850   4.002   3.634   0.340
  851B        B  851   3.990   3.641   0.435
  852C        C  852   4.040   3.547   0.328
  853A        A  853   4.722   4.797   2.897
  854B        B  854   4.788   4.731   2.921
  855C        C  855   4.638   4.751   2.905
  856A        A  856   5.178   0.404   4.577
  857B        B  857   5.236   0.402   4.654
  858C        C  858   5.092   0.376   4.612
  859A        A  859   0.806   0.607   4.338
  860B        B  860   0.736   0.606   4.404
  861C        C  861   0.790   0.687   4.287
  862A        A  862   2.944   3.370   0.122
  863B        B  863   2.904   3.449   0.158
  864C        C  864   2.891   3.298   0.157
  865A        A  865   2.155   3.376   0.967
  866B        B  866   2.246   3.371   0.939
  867C        C  867   2.150   3.457   1.017
  868A        A  868   2.562   1.162   1.108
  869B        B  869   2.476   1.123   1.122
  870C        C  870   2.592   1.125   1.024
  871A        A  871   4.221   3.256   0.440
  872B        B  872   4.271   3.266   0.359
  873C        C  873   4.222   3.344   0.479
  874A        A  874   1.253   0.304   4.266
  875B        B  875   1.220   0.280   4.180
  876C        C  876   1.213   0.239   4.325
  877A        A  877   4.042   0.653   4.525
  878B        B  878   4.075   0.613   4.445
  879C        C  879   3.956   0.611   4.539
  880A        A  880   5.057   4.088   4.795
  881B        B  881   5.133   4.050   4.751
  882C        C  882   5.092   4.167   4.838
  883A        A  883   5.285   2.942   0.806
  884B        B  884   5.294   2.860   0.855
  885C        C  885   5.350   3.000   0.846
  886A        A  886   1.092   3.637   1.793
  887B        B  887   1.114   3.712   1.849
  888C        C  888   1.167   3.630   1.733
  889A        A  889   4.209   2.861   5.316
  890B        B  890   4.220   2.914   5.395
  891C        C  891   4.264   2.906   5.251
  892A        A  892   3.609   1.886   1.196
  893B        B  893   3.547   1.829   1.149
  894C        C  894   3.667   1.824   1.242
  895A        A  895   2.699   0.050   3.898
  896B        B  896   2.647   0.040   3.978
  897C        C  897   2.644   0.103   3.840
  898A        A  898   0.556   5.009   0.433
  899B        B  899   0.500   4.931   0.439
  900C        C  900   0.504   5.070   0.380
  901A        A  901   4.885   1.611   0.673
  902B        B  902   4.949   1.550   0.710
  903C        C  903   4.846   1.564   0.600
  904A        A  904   4.109   4.754   0.235
  905B        B  905   4.061   4.795   0.307
  906C        C  906   4.109   4.661   0.258
  907A        A  907   1.403   4.386   3.365
  908B        B  908   1.495   4.411   3.375
  909C        C  909   1.403   4.324   3.291
  910A        A  910   1.292   0.870   0.686
  911B        B  911   1.324   0.904   0.603
  912C        C  912   1.298   0.945   0.746
  913A        A  913   4.011   5.088   2.002
  914B        B  914   4.006   5.018   1.937
  915C        C  915   4.018   5.041   2.086
  916A        A  916   0.578   0.209   4.211
  917B        B  917   0.571   0.270   4.284
  918C        C  918   0.651   0.243   4.159
  919A        A  919   4.722   1.162   2.064
  920B        B  920   4.707   1.252   2.035
  921C        C  921   4.793   1.169   2.129
  922A        A  922   0.593   0.638   4.945
  923B        B  923   0.631   0.596   4.868
  924C        C  924   0.538   0.708   4.909
  925A        A  925   0.685   4.387   2.054
  926B        B  926   0.593   4.360   2.061
  927C        C  927   0.698   4.443   2.131
  928A        A  928   3.041   3.183   5.178
  929B        B  929   3.084   3.260   5.140
  930C        C  930   2.966   3.167   5.120
  931A        A  931   5.057   2.992   3.946
  932B        B  932   5.013   2.916   3.907
  933C        C  933   5.125   2.953   4.002
  934A        A  934   4.730   2.283   2.334
  935B        B  935   4.734   2.214   2.268
  936C        C  936   4.721   2.235   2.417
  937A        A  937   1.452   3.143   3.049
  938B        B  938   1.444   3.190   2.966
  939C        C  939   1.494   3.060   3.026
  940A        A  940   3.872   3.917   4.975
  941B        B  941   3.849   3.846   4.915
  942C        C  942   3.822   3.897   5.055
  943A        A  943   4.213   2.054   3.373
  944B        B  944   4.207   2.080   3.281
  945C        C  945   4.180   2.130   3.422
  946A        A  946   4.405   3.706   1.741
  947B        B  947   4.436   3.795   1.724
  948C        C  948   4.452   3.652   1.676
  949A        A  949   1.655   2.713   2.020
  950B        B  950   1.729   2.761   1.981
  951C        C  951   1.636   2.762   2.101
  952A        A  952   1.975   4.466   4.059
  953B        B  953   2.031   4.479   4.136
  954C        C  954   1.954   4.556   4.031
  955A        A  955   3.582   0.474   2.872
  956B        B  956   3.596   0.410   2.802
  957C        C  957   3.487   0.491   2.870
  958A        A  958   1.337   2.992   4.832
  959B        B  959   1.285   3.057   4.879
  960C        C  960   1.375   3.041   4.758
  961A        A  961   0.334   3.538   0.791
  962B        B  962   0.271   3.533   0.863
  963C        C  963   0.309   3.618   0.744
  964A        A  964   3.238   3.488   1.673
  965B        B  965   3.331   3.466   1.676
  966C        C  966   3.193   3.406   1.695
  967A        A  967   3.841   5.037   4.163
  968B        B  968   3.936   5.024   4.161
  969C        C  969   3.807   4.959   4.207
  970A        A  970   3.400   1.930   2.885
  971B        B  971   3.311   1.897   2.880
  972C        C  972   3.423   1.921   2.979
  973A        A  973   4.279   5.290   3.991
  974B        B  974   4.198   5.249   4.024
  975C        C  975   4.248   5.353   3.925
  976A        A  976   1.129   2.927   1.019
  977B        B  977   1.211   2.962   0.985
  978C        C  978   1.061   2.979   0.974
  979A        A  979   0.286   0.720   2.780
  980B        B  980   0.247   0.686   2.699
  981C        C  981   0.359   0.661   2.798
  982A        A  982   1.747   0.617   2.996
  983B        B  983   1.684   0.568   2.943
  984C        C  984   1.784   0.551   3.055
  985A        A  985   4.679   1.912   0.131
  986B        B  986   4.699   1.986   0.074
  987C        C  987   4.583   1.912   0.138
  988A        A  988   3.621   1.090   4.789
  989B        B  989   3.562   1.020   4.817
  990C        C  990   3.672   1.111   4.868
  991A        A  991   4.532   2.598   3.980
  992B        B  992   4.601   2.652   3.942
  993C        C  993   4.452   2.650   3.969
  994A        A  994   0.494   2.617   4.976
  995B        B  995   0.450   2.642   5.058
  996C        C  996   0.522   2.701   4.939
  997A        A  997   0.831   4.400   5.157
  998B        B  998   0.831   4.457   5.080
  999C        C  999   0.738   4.385   5.176
 1000A        A 1000   2.298   3.258   0.165
 1001B        B 1001   2.281   3.177   0.117
 1002C        C 1002   2.357   3.231   0.236
 1003A        A 1003   5.091   4.306   3.873
 1004B        B 1004   5.066   4.213   3.870
 1005C        C 1005   5.156   4.315   3.803
 1006A        A 1006   2.125   0.939   1.143
 1007B        B 1007   2.049   0.991   1.119
 1008C        C 1008   2.116   0.926   1.238
 1009A        A 1009   1.892   2.024   2.809
 1010B        B 1010   1.808   2.047   2.768
 1011C        C 1011   1.944   1.987   2.737
 1012A        A 1012   4.746   5.304   2.285
 1013B        B 1013   4.669   5.255   2.314
 1014C        C 1014   4.774   5.258   2.205
 1015A        A 1015   1.397   0.412   4.043
 1016B        B 1016   1.443   0.496   4.034
 1017C        C 1017   1.369   0.390   3.954
 1018A        A 1018   3.977   2.799   1.182
 1019B        B 1019   4.059   2.782   1.135
 1020C        C 1020   4.000   2.869   1.244
 1021A        A 1021   4.451   0.281   3.719
 1022B        B 1022   4.362   0.301   3.688
 1023C        C 1023   4.437   0.228   3.798
 1024A        A 1024   3.751   5.283   3.010
 1025B        B 1025   3.814   5.224   2.968
 1026C        C 1026   3.766   5.270   3.104
 1027A        A 1027   2.125   5.091   3.694
 1028B        B 1028   2.049   5.044   3.730
 1029C        C 1029   2.086   5.156   3.635
 1030A        A 1030   3.842   4.559   2.013
 1031B        B 1031   3.926   4.518   2.033
 1032C        C 1032   3.782   4.485   2.002
 1033A        A 1033   3.391   1.470   2.749
 1034B        B 1034   3.408   1.434   2.836
 1035C        C 1035   3.462   1.533   2.735
 1036A        A 1036   0.016   0.622   1.531
 1037B        B 1037   0.038   0.681   1.603
 1038C        C 1038  -0.050   0.670   1.480
 1039A        A 1039   2.725   4.970   2.372
 1040B        B 1040   2.717   5.060   2.405
 1041C        C 1041   2.707   4.978   2.278
 1042A        A 1042   4.362   2.209   3.040
 1043B        B 1043   4.371   2.220   2.945
 1044C        C 1044   4.271   2.182   3.053
 1045A        A 1045   2.242   5.144   0.618
 1046B        B 1046   2.203   5.061   0.644
 1047C        C 1047   2.241   5.142   0.522
 1048A        A 1048   4.004   1.464   0.954
 1049B        B 1049   3.978   1.423   0.871
 1050C        C 1050   3.920   1.491   0.994
 1051A        A 1051   0.241   1.432   0.925
 1052B        B 1052   0.284   1.487   0.859
 1053C        C 1053   0.159   1.478   0.944
 1054A        A 1054   3.714   0.841   2.895
 1055B        B 1055   3.711   0.753   2.857
 1056C        C 1056   3.773   0.832   2.971
 1057A        A 1057   0.619   1.207   3.269
 1058B        B 1058   0.681   1.276   3.248
 1059C        C 1059   0.649   1.132   3.217
 1060A        A 1060   2.073   2.365   3.682
 1061B        B 1061   2.156   2.404   3.710
 1062C        C 1062   2.077   2.369   3.586
 1063A        A 1063   1.512   0.412   0.031
 1064B        B 1064   1.537   0.441   0.119
 1065C        C 1065   1.525   0.316   0.033
 1066A        A 1066   4.918   2.645   1.015
 1067B        B 1067   4.833   2.653   1.058
 1068C        C 1068   4.903   2.678   0.926
 1069A        A 1069   1.310   5.235   0.392
 1070B        B 1070   1.262   5.153   0.405
 1071C        C 1071   1.292   5.258   0.300
 1072A        A 1072   3.026   0.739   0.692
 1073B        B 1073   3.073   0.822   0.689
 1074C        C 1074   2.952   0.756   0.751
 1075A        A 1075   0.493   5.309   2.894
 1076B        B 1076   0.487   5.214   2.892
 1077C        C 1077   0.416   5.339   2.844
 1078A        A 1078   0.232   5.169   4.623
 1079B        B 1079   0.153   5.218   4.648
 1080C        C 1080   0.275   5.226   4.559
 1081A        A 1081   2.357   0.960   2.619
 1082B        B 1082   2.311   1.017   2.558
 1083C        C 1083   2.355   0.873   2.578
 1084A        A 1084   4.874   4.800   4.384
 1085B        B 1085   4.886   4.895   4.375
 1086C        C 1086   4.778   4.788   4.378
 1087A        A 1087   4.189   2.031   2.176
 1088B        B 1088   4.172   2.125   2.190
 1089C        C 1089   4.281   2.020   2.202
 1090A        A 1090   2.431   0.107   1.841
 1091B        B 1091   2.443   0.202   1.845
 1092C        C 1092   2.508   0.076   1.793
 1093A        A 1093   3.107   1.611   3.076
 1094B        B 1094   3.055   1.673   3.026
 1095C        C 1095   3.041   1.556   3.121
 1096A        A 1096   3.940   0.156   3.432
 1097B        B 1097   3.940   0.221   3.362
 1098C        C 1098   3.880   0.192   3.498
 1099A        A 1099   3.093   4.498   3.661
 1100B        B 1100   3.136   4.517   3.578
 1101C        C 1101   3.001   4.481   3.637
 1102A        A 1102   1.838   3.015   1.196
 1103B        B 1103   1.819   2.953   1.267
 1104C        C 1104   1.751   3.050   1.172
 1105A        A 1105   0.935   1.269   3.069
 1106B        B 1106   0.948   1.359   3.100
 1107C        C 1107   0.966   1.214   3.142
 1108A        A 1108   4.635   4.799   0.311
 1109B        B 1109   4.712   4.852   0.335
 1110C        C 1110   4.588   4.787   0.394
 1111A        A 1111   3.578   4.557   1.349
 1112B        B 1112   3.669   4.563   1.318
 1113C        C 1113   3.578   4.607   1.431
 1114A        A 1114   2.698   4.408   1.431
 1115B        B 1115   2.665   4.318   1.429
 1116C        C 1116   2.647   4.453   1.363
 1117A        A 1117   2.322   2.806   3.122
 1118B        B 1118   2.390   2.864   3.086
 1119C        C 1119   2.342   2.801   3.216
 1120A        A 1120   1.471   2.112   3.078
 1121B        B 1121   1.488   2.046   3.011
 1122C        C 1122   1.558   2.131   3.115
 1123A        A 1123   4.439   0.452   2.096
 1124B        B 1124   4.379   0.380   2.078
 1125C        C 1125   4.436   0.462   2.192
 1126A        A 1126   4.822   3.513   4.476
 1127B        B 1127   4.896   3.549   4.426
 1128C        C 1128   4.778   3.590   4.513
 1129A        A 1129   4.202   2.503   2.375
 1130B        B 1130   4.120   2.544   2.347
 1131C        C 1131   4.270   2.553   2.328
 1132A        A 1132   4.217   3.878   3.270
 1133B        B 1133   4.202   3.867   3.364
 1134C        C 1134   4.129   3.891   3.233
 1135A        A 1135   4.593   5.278   3.878
 1136B        B 1136   4.582   5.259   3.971
 1137C        C 1137   4.627   5.196   3.841
 1138A        A 1138   3.855   2.571   0.783
 1139B        B 1139   3.948   2.563   0.760
 1140C        C 1140   3.810   2.577   0.698
 1141A        A 1141   0.703   5.185   3.554
 1142B        B 1142   0.638   5.154   3.617
 1143C        C 1143   0.751   5.254   3.602
 1144A        A 1144   0.385   1.229   4.513
 1145B        B 1145   0.441   1.251   4.588
 1146C        C 1146   0.438   1.166   4.463
 1147A        A 1147   2.260   5.281   2.362
 1148B        B 1148   2.239   5.234   2.443
 1149C        C 1149   2.272   5.211   2.297
 1150A        A 1150   2.919   1.017   4.796
 1151B        B 1151   2.874   0.963   4.731
 1152C        C 1152   2.892   1.107   4.775
 1153A        A 1153   4.390   4.465   1.789
 1154B        B 1154   4.428   4.552   1.804
 1155C        C 1155   4.454   4.404   1.828
 1156A        A 1156   1.146   5.006   0.896
 1157B        B 1157   1.064   5.056   0.893
 1158C        C 1158   1.143   4.963   0.982
 1159A        A 1159   1.466   0.681   2.242
 1160B        B 1160   1.549   0.633   2.235
 1161C        C 1161   1.406   0.633   2.184
 1162A        A 1162   3.311   4.219   5.238
 1163B        B 1163   3.264   4.156   5.183
 1164C        C 1164   3.385   4.170   5.274
 1165A        A 1165   0.073   4.794   0.395
 1166B        B 1166   0.009   4.854   0.434
 1167C        C 1167   0.033   4.707   0.404
 1168A        A 1168   3.571   4.951   1.112
 1169B        B 1169   3.512   5.025   1.121
 1170C        C 1170   3.648   4.988   1.067
 1171A        A 1171   4.054   0.576   5.092
 1172B        B 1172   3.998   0.632   5.038
 1173C        C 1173   4.099   0.637   5.151
 1174A        A 1174   3.499   1.849   4.471
 1175B        B 1175   3.403   1.842   4.464
 1176C        C 1176   3.524   1.904   4.396
 1177A        A 1177   3.553   2.198   1.814
 1178B        B 1178   3.551   2.107   1.844
 1179C        C 1179   3.542   2.192   1.718
 1180A        A 1180   4.721   1.985   1.020
 1181B        B 1181   4.667   2.049   1.068
 1182C        C 1182   4.686   1.900   1.048
 1183A        A 1183   3.841   2.436   5.268
 1184B        B 1184   3.878   2.511   5.313
 1185C        C 1185   3.908   2.410   5.204
 1186A        A 1186   1.664   4.469   2.031
 1187B        B 1187   1.577   4.476   1.989
 1188C        C 1188   1.644   4.455   2.124
 1189A        A 1189   1.938   0.842   0.793
 1190B        B 1190   2.013   0.888   0.755
 1191C        C 1191   1.866   0.906   0.787
 1192A        A 1192   3.105   4.950   2.227
 1193B        B 1193   3.150   4.920   2.147
 1194C        C 1194   3.056   5.027   2.198
 1195A        A 1195   4.423   4.170   3.314
 1196B        B 1196   4.387   4.116   3.385
 1197C        C 1197   4.349   4.178   3.252
 1198A        A 1198   4.158   1.818   0.260
 1199B        B 1199   4.140   1.909   0.287
 1200C        C 1200   4.230   1.826   0.197
   5.32553   5.32553   5.32553
