[ defaults ]
; nbfunc        comb-rule       gen-pairs       fudgeLJ fudgeQQ
  1             1               no               1.0     1.0

[ atomtypes ]
;name       mass        charge   ptype       c6           c12
 A         18.0154    0.000     A           0            1
 B         18.0154    0.000     A           0            1
 C         18.0154    0.000     A           0            1


[ moleculetype ]
; name  nrexcl
A     3

[ atoms ]
;   nr    type   resnr  residu    atom    cgnr  charge
    1     A    1      A         A    1     0.00


[ moleculetype ]
; name  nrexcl
B     3

[ atoms ]
;   nr    type   resnr  residu    atom    cgnr  charge
    1     B    1      B         B    1     0.00


[ moleculetype ]
; name  nrexcl
C     3

[ atoms ]
;   nr    type   resnr  residu    atom    cgnr  charge
    1     C    1      SOL         C    1     0.00




[ system ]
SOL

[ molecules ]
A    400
B    400
C    400
; The out.gro file I made to accompany this for quick top info has ABC in a different order, but for constructing the top it won't matter. LAMMPS will generate sorted data in this order. 
; Just up -maxwarn by 1 to account for the mismatch in ABC names in the topology / .gro files. Gromacs will take the top order for building the .tpr -> dumped_tpr -> (BOCS) .btp
