[ moleculetype ]
; Name            nrexcl
  OTP             3

[ atoms ]
;   nr       type  resnr residue  atom   cgnr      charge        mass   typeB    chargeB	   massB
     1   opls_145      1    OTP    CA1      1      -0.115    12.01100   ; qtot -0.115
     2   opls_146      1    OTP    HA1      2       0.115     1.00800   ; qtot 0
     3   opls_145      1    OTP    CA2      3      -0.115    12.01100   ; qtot -0.115
     4   opls_146      1    OTP    HA2      4       0.115     1.00800   ; qtot 0
     5   opls_145      1    OTP    CA3      5      -0.115    12.01100   ; qtot -0.115
     6   opls_146      1    OTP    HA3      6       0.115     1.00800   ; qtot 0
     7   opls_145      1    OTP    CA4      7      -0.115    12.01100   ; qtot -0.115
     8   opls_146      1    OTP    HA4      8       0.115     1.00800   ; qtot 0
     9   opls_145      1    OTP    CA5      9      -0.115    12.01100   ; qtot -0.115
    10   opls_146      1    OTP    HA5     10       0.115     1.00800   ; qtot 0
    11   opls_147      1    OTP    CA6     11       0.000    12.01100   ; qtot 0
    12   opls_147      1    OTP    CA7     12       0.000    12.01100   ; qtot 0
    13   opls_145      1    OTP    CA8     13      -0.115    12.01100   ; qtot -0.115
    14   opls_146      1    OTP    HA8     14       0.115     1.00800   ; qtot 0
    15   opls_145      1    OTP    CA9     15      -0.115    12.01100   ; qtot -0.115
    16   opls_146      1    OTP    HA9     16       0.115     1.00800   ; qtot 0
    17   opls_145      1    OTP    CA0     17      -0.115    12.01100   ; qtot -0.115
    18   opls_146      1    OTP    HA0     18       0.115     1.00800   ; qtot 0
    19   opls_145      1    OTP    CAA     19      -0.115    12.01100   ; qtot -0.115
    20   opls_146      1    OTP    HAA     20       0.115     1.00800   ; qtot 0
    21 	 opls_147      1    OTP	   CAB 	   21  	    0.000    12.01100  	; qtot 0
    22 	 opls_147      1    OTP	   CAC 	   22  	    0.000    12.01100  	; qtot 0
    23   opls_145      1    OTP    CAD     23      -0.115    12.01100   ; qtot -0.115
    24   opls_146      1    OTP    HAD     24       0.115     1.00800   ; qtot 0
    25   opls_145      1    OTP    CAE     25      -0.115    12.01100   ; qtot -0.115
    26   opls_146      1    OTP    HAE     26       0.115     1.00800   ; qtot 0
    27   opls_145      1    OTP    CAF     27      -0.115    12.01100   ; qtot -0.115
    28   opls_146      1    OTP    HAF     28       0.115     1.00800   ; qtot 0
    29   opls_145      1    OTP    CAG     29      -0.115    12.01100   ; qtot -0.115
    30   opls_146      1    OTP    HAG     30       0.115     1.00800   ; qtot 0
    31   opls_145      1    OTP    CAH     31      -0.115    12.01100   ; qtot -0.115
    32   opls_146      1    OTP    HAH     32       0.115     1.00800   ; qtot 0

[ bonds ]
;  ai    aj funct            c0            c1            c2            c3
    1     2     1
    1     3     1
    1    11     1
    3     4     1
    3     5     1
    5     6     1
    5     7     1
    7     8     1
    7     9     1
    9    10     1
    9    11     1
   11    12     1
   12    13     1
   12    21     1
   13    14     1
   13    15     1
   15    16     1
   15    17     1
   17    18     1
   17    19     1
   19    20     1
   19    21     1
   21    22     1
   22    23     1
   22    31     1
   23    24     1
   23    25     1
   25    26     1
   25    27     1
   27    28     1
   27    29     1
   29    30     1
   29    31     1
   31    32     1

[ pairs ]
;  ai    aj funct            c0            c1            c2            c3
    1     8     1
    1    14     1
    1    15     1
    1    19     1
    1    22     1
    2     6     1
    2     7     1
    2    10     1
    2    13     1
    2    21     1
    3    10     1
    3    13     1
    3    21     1
    4     8     1
    4     9     1
    4    12     1
    5    12     1
    6    10     1
    6    11     1
    7    13     1
    7    21     1
    8    12     1
    9    14     1
    9    15     1
    9    19     1
    9    22     1
   10    13     1
   10    21     1
   11    16     1
   11    17     1
   11    20     1
   11    23     1
   11    31     1
   12    18     1
   12    24     1
   12    25     1
   12    29     1
   12    32     1
   13    20     1
   13    23     1
   13    31     1
   14    18     1
   14    19     1
   14    22     1
   15    22     1
   16    20     1
   16    21     1
   17    23     1
   17    31     1
   18    22     1
   19    24     1
   19    25     1
   19    29     1
   19    32     1
   20    23     1
   20    31     1
   21    26     1
   21    27     1
   21    30     1
   22    28     1
   23    30     1
   24    28     1
   24    29     1
   24    32     1
   25    32     1
   26    30     1
   26    31     1
   28    32     1

[ angles ]
;  ai    aj    ak funct            c0            c1            c2            c3
    1     3     4     1
    1     3     5     1
    1    11     9     1
    1    11    12     1
    2     1     3     1
    2     1    11     1
    3     5     6     1
    3     5     7     1
    3     1    11     1
    4     3     5     1
    5     7     8     1
    5     7     9     1
    6     5     7     1
    7     9    10     1
    7     9    11     1
    8     7     9     1
    9    11    12     1
   10     9    11     1
   11    12    13     1
   11    12    21     1
   12    13    14     1
   12    13    15     1
   12    21    19     1
   12    21    22     1
   13    12    21     1
   13    15    16     1
   13    15    17     1
   14    13    15     1
   15    17    18     1
   15    17    19     1
   16    15    17     1
   17    19    20     1
   17    19    21     1
   18    17    19     1
   19    21    22     1
   20    19    21     1
   21    22    23     1
   21    22    31     1
   22    23    24     1
   22    23    25     1
   22    31    29     1
   22    31    32     1
   23    22    31     1
   23    25    26     1
   23    25    27     1
   24    23    25     1
   25    27    28     1
   25    27    29     1
   26    25    27     1
   27    29    30     1
   27    29    31     1
   28    27    29     1
   29    31    32     1
   30    29    31     1

[ dihedrals ]
;  ai    aj    ak    al funct            c0            c1            c2            c3            c4            c5
    1     3     5     6     3
    1     3     5     7     3
    1    11     9     7     3
    1    11     9    10     3
    1    11    12    13     3
    1    11    12    21     3
    2     1     3     4     3
    2     1     3     5     3
    2     1    11     9     3
    2     1    11    12     3
    3     5     7     8     3
    3     5     7     9     3
    3     1    11     9     3
    3     1    11    12     3
    4     3     1    11     3
    4     3     5     6     3
    4     3     5     7     3
    5     3     1    11     3
    5     7     9    10     3
    5     7     9    11     3
    6     5     7     8     3
    6     5     7     9     3
    7     9    11    12     3
    8     7     9    10     3
    8     7     9    11     3
    9    11    12    13     3
    9    11    12    21     3
   10     9    11    12     3
   11    12    13    14     3
   11    12    13    15     3
   11    12    21    19     3
   11    12    21    22     3
   12    13    15    16     3
   12    13    15    17     3
   12    21    19    17     3
   12    21    19    20     3
   12    21    22    23     3
   12    21    22    31     3
   13    12    21    19     3
   13    12    21    22     3
   13    15    17    18     3
   13    15    17    19     3
   14    13    12    21     3
   14    13    15    16     3
   14    13    15    17     3
   15    13    12    21     3
   15    17    19    20     3
   15    17    19    21     3
   16    15    17    18     3
   16    15    17    19     3
   17    19    21    22     3
   18    17    19    20     3
   18    17    19    21     3
   19    21    22    23     3
   19    21    22    31     3
   20    19    21    22     3
   21    22    23    24     3
   21    22    23    25     3
   21    22    31    29     3
   21    22    31    32     3
   22    23    25    26     3
   22    23    25    27     3
   22    31    29    27     3
   22    31    29    30     3
   23    22    31    29     3
   23    22    31    32     3
   23    25    27    28     3
   23    25    27    29     3
   24    23    22    31     3
   24    23    25    26     3
   24    23    25    27     3
   25    23    22    31     3
   25    27    29    30     3
   25    27    29    31     3
   26    25    27    28     3
   26    25    27    29     3
   27    29    31    32     3
   28    27    29    30     3
   28    27    29    31     3
   30    29    31    32     3

